HEADER
"PSFversion" "1.00"
"design" "(\"ee115c\" \"NMOS_IV\" \"schematic\" \"\")"
"simulator" "spectre"
"temperature" "27"
"host" ""
"date" "Jan 24 08:02:37 2017"
"title" ""
"analysisList" "()"
END
