HEADER
"PSFversion" "1.00"
"Time Stamp" "Jan 24 08:02:37 2017"
TYPE
"variable" STRUCT(
"value" FLOAT DOUBLE
) PROP( "key" "element" )
VALUE
"VSB" "variable" ( 500e-3 ) PROP( )
"VGS" "variable" ( 0 ) PROP( )
"VDS" "variable" ( 500e-3 ) PROP( )
"temp" "variable" ( 27 ) PROP( )
END
